<?xml version="1.0"?>
<VTKFile type="UnstructuredGrid"  version="0.1"  >
<UnstructuredGrid>
<Piece  NumberOfPoints="1366" NumberOfCells="3236">
<Points>
<DataArray  type="Float64"  NumberOfComponents="3"  format="ascii">0.99591 0.00228 0  3 0.5 0  3 -0.5 0  -1 -0.5 0  -1 0.5 0  3 0.5 0  -1 0.5 0  -1 -0.5 0  3 -0.5 0  0.99591 0.00228 0  0.9910653397397747 0.003488910166227232 0  0.9862024559055707 0.004623085184757701 0  0.9813422551529578 0.00576869293278975 0  0.976483265439499 0.006919452482979805 0  0.9716231515898128 0.008065457825671555 0  0.9667612708408663 0.009203934278359544 0  0.9618972790992599 0.01033336867274381 0  0.9570323950220545 0.01145894503971546 0  0.9521668920083289 0.01258184727169035 0  0.9473002149980575 0.01369964744725273 0  0.9424319561538934 0.01481053733116504 0  0.9375618074757834 0.01591311821280292 0  0.9326895954204575 0.01700653743163715 0  0.9278162950488413 0.01809509541163657 0  0.9229421178477004 0.01917972802193427 0  0.9180668466267867 0.02025943567254096 0  0.913190303588083 0.02133337352452016 0  0.9083123333370486 0.02240081496695959 0  0.9034328078178716 0.02346112157072499 0  0.8985516136380686 0.02451372457435412 0  0.893669107183149 0.02556022261176544 0  0.888785836352827 0.02660314499181346 0  0.8839016524725994 0.0276417902865778 0  0.8790164235247337 0.02867549806093114 0  0.8741300242699727 0.02970367016253051 0  0.8692423491713078 0.03072575546215473 0  0.8643532997211911 0.03174124260053587 0  0.8594627853873111 0.0327496517928959 0  0.8545707323769095 0.03375056935335902 0  0.8496775855576151 0.03474613311886093 0  0.8447835782541585 0.0357374577779564 0  0.8398886375624363 0.03672415559935538 0  0.8349926924596781 0.0377058622344837 0  0.8300956800401621 0.03868223109875729 0  0.8251975408841965 0.03965293066085454 0  0.8202982173684156 0.04061764168966762 0  0.815397659845283 0.04157605340461681 0  0.8104958143588126 0.04252786361018755 0  0.8055926458099656 0.04347282226555319 0  0.8006885002856886 0.04441270714405879 0  0.7957835347087361 0.04534830681324793 0  0.7908776963252501 0.04627931135118651 0  0.7859709310071659 0.04720542199515349 0  0.7810631890404803 0.04812634789282089 0  0.7761544249523966 0.04904180426363994 0  0.7712445929298479 0.04995151159021553 0  0.766333647467913 0.05085519399234267 0  0.7614215474497745 0.05175257712260911 0  0.7565082507477302 0.0526433879229547 0  0.7515937246426424 0.05352738711734382 0  0.7466782493592345 0.05440609313503909 0  0.7417619640346145 0.05528025880461503 0  0.7368448292805602 0.05614963452568527 0  0.7319268070757314 0.05701397423815219 0  0.7270078598689557 0.05787303443766622 0  0.7220879513635129 0.05872657298983351 0  0.717167046836761 0.05957434810744713 0  0.7122451112498355 0.06041611776978421 0  0.7073221111902408 0.06125163852930161 0  0.7023980126976758 0.06208066506248353 0  0.6974727849262036 0.06290294876117684 0  0.6925464101395223 0.06371833218794742 0  0.6876191345014421 0.06452825906932327 0  0.6826910344298638 0.06533315980428446 0  0.677762088101853 0.06613285150251016 0  0.6728322691510553 0.06692715048281776 0  0.6679015542210803 0.06771587045334265 0  0.6629699205565198 0.06849882233693011 0  0.6580373440775412 0.06927581401507765 0  0.6531038021671085 0.07004664932916788 0  0.6481692710345448 0.07081112793979982 0  0.6432337277305743 0.07156904444898937 0  0.638297149064837 0.07232018799801827 0  0.6333595117787058 0.07306434165334312 0  0.6284208881558346 0.0738019186661443 0  0.6234814849865911 0.07453425932552332 0  0.6185412869826663 0.07526121716402209 0  0.6136002676259402 0.07598257216567746 0  0.6086584012732716 0.07669810128947939 0  0.6037156622961468 0.07740757794959494 0  0.5987720256877183 0.07811077128264939 0  0.5938274661562478 0.07880744562765203 0  0.588881958850453 0.07949735976217384 0  0.583935479034837 0.08018026627354202 0  0.5789880021343158 0.0808559108565156 0  0.5740395036272036 0.08152403160558622 0  0.5690899589988199 0.08218435826637528 0  0.5641394315408816 0.08283727513509162 0  0.5591880954697012 0.08348403376699086 0  0.5542359433635821 0.0841245131643345 0  0.5492829602039697 0.0847585337221457 0  0.5443291310990065 0.08538590986564727 0  0.5393744409627829 0.086006449605168 0  0.5344188747831013 0.08661995399054366 0  0.5294624174822385 0.08722621658813637 0  0.5245050538552202 0.08782502291406531 0  0.5195467686835383 0.08841614980836957 0  0.5145875466891304 0.08899936478637407 0  0.5096273725342926 0.08957442533651064 0  0.504666230946177 0.09014107815033064 0  0.4997041486380846 0.09069943374605252 0  0.4947412879016441 0.09125082936456687 0  0.4897776529501283 0.09179521162013923 0  0.4848132281230522 0.09233234226554023 0  0.4798479977819745 0.09286197490773651 0  0.4748819465579266 0.09338385426126276 0  0.4699150593055305 0.09389771538995846 0  0.4649473210356472 0.09440328290005882 0  0.459978717050008 0.09490027005522828 0  0.455009232979077 0.09538837783744854 0  0.4500388547192543 0.0958672939445004 0  0.4450675686080566 0.0963366916815446 0  0.4400953613370294 0.09679622878511773 0  0.4351222358112793 0.09724571867797903 0  0.4301483163823697 0.09768634021264801 0  0.4251736325634017 0.09811824739034422 0  0.4201981842353291 0.09854125454081113 0  0.4152219706937809 0.09895516441491872 0  0.4102449922479426 0.09935976738255158 0  0.4052672476967861 0.09975484089997581 0  0.4002887379354351 0.1001401484000615 0  0.3953094631468875 0.1005154386148756 0  0.3903294239473426 0.1008804444814626 0  0.3853486217136055 0.1012348820106655 0  0.3803670576681304 0.1015784491235496 0  0.3753847345953928 0.1019108241671499 0  0.3704016673692997 0.1022318488856528 0  0.365417938021381 0.1025424320609403 0  0.3604335687511835 0.1028425691484014 0  0.355448568019628 0.103132025765074 0  0.350462944562374 0.103410550505767 0  0.3454767075476863 0.1036778738116483 0  0.340489868340305 0.1039337066262321 0  0.3355024379759588 0.1041777391311407 0  0.3305144283459028 0.1044096391090622 0  0.3255258535777186 0.10462905012438 0  0.3205367305489337 0.1048355895436023 0  0.3155470748028408 0.1050288464906219 0  0.310556906681895 0.1052083790999586 0  0.3055662680617028 0.1053743468710918 0  0.3005752085757078 0.1055271139216865 0  0.2955837568196263 0.1056664707569724 0  0.2905919423981931 0.1057921844280342 0  0.2855997973606738 0.1059039970240405 0  0.2806073551055123 0.1060016239581187 0  0.2756146503821222 0.1060847519639542 0  0.2706217205586656 0.1061530367866619 0  0.2656286059985279 0.1062061005716798 0  0.2606353497390593 0.1062435288811537 0  0.2556420001674561 0.1062648672507275 0  0.2506486063646806 0.1062696208107805 0  0.2456552243073159 0.1062574943653669 0  0.2406619136389449 0.1062283322543014 0  0.2356687333021864 0.1061819028754161 0  0.230675747981555 0.1061179411690064 0  0.2256830222172076 0.1060361459125239 0  0.2206906262869524 0.1059361767122895 0  0.2156986376062015 0.1058176505037375 0  0.2107071372862061 0.1056801373503386 0  0.2057162095190743 0.1055231555585026 0  0.2007259529445199 0.1053461663909973 0  0.1957364689729696 0.1051485536093901 0  0.1907478905397669 0.1049292982125781 0  0.1857603397622956 0.1046877989097983 0  0.1807739368922541 0.1044236515145413 0  0.1757888125768285 0.1041363904673684 0  0.1708051078845353 0.1038254820802665 0  0.1658229753634235 0.1034903165410308 0  0.160842585955412 0.103130198785163 0  0.1558641230722627 0.1027443365841698 0  0.1508877984584003 0.1023318278693577 0  0.1459138546281264 0.1018915665540792 0  0.1409426823908212 0.1014210385209577 0  0.1359745879308944 0.1009190562025671 0  0.1310098393940471 0.1003850105608186 0  0.126048726014188 0.09981818076895332 0  0.1210915728450807 0.099217718810633 0  0.1161387363847734 0.09858262796955074 0  0.1111906238414931 0.09791173898520444 0  0.1062476937330614 0.09720367719219762 0  0.1013105625406979 0.09645627220033888 0  0.09638033965204254 0.09566460167554824 0  0.09145779859261373 0.09482648421182262 0  0.08654374330126091 0.09393999472463384 0  0.08163909445466118 0.09300285551620702 0  0.07674494616727481 0.09201236141205439 0  0.0718625964496486 0.0909652725371075 0  0.06699362447908082 0.08985766731351753 0  0.06214070953554125 0.08868175427566689 0  0.05730678494697666 0.08743009229591001 0  0.05249470350710547 0.08609695455082078 0  0.04770804999836311 0.0846752700763478 0  0.04295143399325435 0.08315616704669347 0  0.03823096531373415 0.08152830033213698 0  0.0335098387610641 0.07990226887569658 0  0.02878986213633266 0.07827306806404008 0  0.02417463137106127 0.07637148020334347 0  0.01982298816484183 0.07393137257663317 0  0.01586678563514941 0.07088994586489682 0  0.01209367479036302 0.06761964399733461 0  0.008474857669753264 0.06417991861735907 0  0.005105238072285162 0.06049695621669206 0  0.002179817779148734 0.0564560210148083 0  0.000221575463196661 0.05188567353881181 0  0.0005354375764902168 0.04696948691579646 0  0.002800729351966333 0.04253549171792568 0  0.005853436394026171 0.03858831863261729 0  0.009287263081405426 0.03496470030237136 0  0.01294064658481011 0.03156151902064559 0  0.0167277962581969 0.02830735287806664 0  0.02075936302421644 0.02536914885825954 0  0.02517851178670744 0.02305236658005578 0  0.02982033422920041 0.02121498951293103 0  0.03453469387506956 0.01956923002024841 0  0.03923205939751727 0.01787577262921343 0  0.04394559334527676 0.01622789364580373 0  0.0486938564661801 0.01468284843064582 0  0.05347079267639098 0.01322880537216383 0  0.05827184492145313 0.01185644012448746 0  0.06309349655621269 0.01055826597385624 0  0.067932969034441 0.00932816620300087 0  0.07278787794015404 0.008160444520009691 0  0.07765611690562192 0.007049574271128397 0  0.08253598262449278 0.005990935292317719 0  0.08742609170004964 0.004980655400902405 0  0.09232530139204655 0.004015458311173671 0  0.09723265651081445 0.003092548524228375 0  0.1021473449604428 0.002209524475230377 0  0.1070687035874993 0.001364458247003756 0  0.1119960968105122 0.0005553163671441464 0  0.1169288952756449 -0.0002202085718169
[...]
<CellData  Scalars="f">
<DataArray  type="Float64"  Name="f"  format="ascii">0 0 3 2 0 3 2 0 3 0 1 3 0 1 3 0 2 3 0 1 3 1 0 3 0 2 3 0 0 3 0 3 3 0 3 0 3 0 3 3 0 3 0 3 0 3 3 0 3 0 3 3 0 3 0 3 0 3 3 0 3 0 3 0 3 3 0 3 0 3 0 3 3 0 3 0 3 0 3 3 0 3 0 3 0 3 3 0 3 0 3 0 3 3 0 3 0 3 0 3 3 0 3 0 3 0 3 3 0 3 0 3 0 3 3 0 3 0 3 0 3 3 0 3 0 3 0 3 3 0 3 0 3 0 3 3 0 3 0 3 0 3 3 0 3 0 3 0 3 3 0 3 0 3 0 3 3 0 3 0 3 0 3 3 0 3 0 3 0 3 3 0 3 0 3 0 3 3 0 3 0 3 0 3 3 0 3 0 3 0 3 3 0 3 0 3 0 3 3 0 3 0 3 0 3 3 0 3 0 3 0 3 3 0 3 0 3 0 3 0 3 3 0 3 0 3 0 3 0 3 0 3 0 3 3 0 3 0 3 0 3 0 3 3 0 3 0 3 0 3 0 3 3 0 3 0 3 0 3 0 3 3 0 3 0 3 0 3 3 0 3 0 3 0 3 3 0 3 0 3 0 3 0 3 3 0 3 0 3 0 3 3 0 3 0 3 0 3 3 0 3 0 3 0 3 0 3 3 0 3 0 3 0 3 0 3 3 0 3 0 3 0 3 3 0 3 0 3 0 3 0 3 3 0 3 0 3 0 3 3 0 3 0 3 0 3 3 0 3 0 3 3 0 3 0 3 0 3 0 3 3 0 3 0 3 0 3 0 3 0 3 3 0 3 3 3 0 3 0 3 0 3 0 3 0 3 3 0 3 0 3 0 3 0 3 0 3 3 0 3 0 3 0 3 0 3 0 3 3 0 3 0 3 0 3 0 3 0 3 3 0 3 0 3 0 3 0 3 3 0 3 0 3 0 3 0 3 0 3 3 0 3 0 3 0 3 3 0 3 0 3 0 3 0 3 3 0 3 0 3 0 3 3 0 3 0 3 0 3 0 3 3 0 3 0 3 0 3 0 3 3 0 3 0 3 0 3 3 0 3 0 3 0 3 0 3 3 0 3 0 3 0 3 3 0 3 0 3 0 3 3 0 3 0 3 3 0 3 0 3 0 3 0 3 0 3 0 3 0 3 0 3 0 3 0 3 0 3 0 3 0 3 0 3 0 3 3 0 3 0 3 3 0 3 0 3 0 3 0 3 0 3 3 0 3 0 3 3 0 3 0 3 0 3 3 0 3 0 3 0 3 0 3 0 3 0 3 0 3 0 3 0 3 0 3 3 0 3 0 3 0 3 0 3 0 3 0 3 3 0 3 0 3 0 3 3 0 3 0 3 0 3 3 0 3 0 3 0 3 3 0 3 3 0 3 0 3 0 3 3 0 3 0 3 0 3 3 0 3 0 3 3 0 3 0 3 0 3 3 0 3 0 3 0 3 0 3 3 0 3 0 3 3 0 3 0 3 0 3 0 3 3 0 3 0 3 0 3 3 0 3 0 3 0 3 3 0 3 0 3 0 3 3 0 3 0 3 0 3 3 0 3 3 0 3 0 3 0 3 3 0 3 0 3 0 3 3 0 3 0 3 0 3 0 3 3 0 3 0 3 3 3 0 3 0 3 0 3 3 0 3 0 3 3 3 0 3 0 3 0 3 3 0 3 0 3 0 3 3 0 3 0 3 0 3 0 3 3 0 3 0 3 0 3 3 3 0 3 0 3 3 0 3 0 3 0 3 3 0 3 0 3 0 3 3 0 3 0 3 0 3 3 0 3 0 3 0 3 3 0 3 0 3 0 3 3 0 3 3 0 3 0 3 0 3 3 0 3 3 0 3 0 3 0 3 3 0 3 0 3 0 3 3 0 3 0 3 0 3 0 3 3 0 3 0 3 0 3 3 0 3 0 3 0 3 3 0 3 0 3 0 3 3 0 3 0 3 0 3 3 0 3 3 0 3 0 3 0 3 3 0 3 3 0 3 0 3 0 3 3 0 3 0 3 0 3 0 3 3 0 3 0 3 0 3 0 3 3 0 3 0 3 0 3 3 0 3 0 3 0 3 0 3 3 0 3 0 3 0 3 0 3 3 0 3 0 3 0 3 3 0 3 0 3 0 3 3 0 3 0 3 0 3 0 3 3 3 3 3 3 3 0 3 3 0 3 3 0 3 3 0 3 3 3 3 0 3 3 3 3 0 3 3 3 3 3 3 3 0 3 3 0 3 3 3 0 3 3 3 3 0 3 3 3 0 3 3 0 3 3 3 3 3 3 3 0 3 3 0 3 3 0 3 3 0 3 3 3 3 0 3 3 3 3 0 3 3 3 3 3 3 3 3 3 0 3 3 0 3 3 3 0 3 3 3 3 0 3 3 3 0 3 3 0 3 3 3 3 3 3 3 0 3 0 3 3 3 3 0 3 0 3 0 3 0 3 3 0 3 0 3 0 3 3 0 3 0 3 0 3 3 0 3 0 3 0 3 0 3 3 0 3 0 3 0 3 0 3 3 0 3 0 3 0 3 3 0 3 0 3 0 3 0 3 3 0 3 0 3 0 3 0 3 3 0 3 0 3 0 3 3 0 3 3 0 3 0 3 0 3 3 0 3 3 0 3 0 3 0 3 3 0 3 0 3 0 3 3 0 3 0 3 0 3 3 0 3 0 3 0 3 3 0 3 0 3 0 3 0 3 3 0 3 0 3 0 3 3 0 3 0 3 0 3 3 0 3 3 0 3 0 3 0 3 3 0 3 3 0 3 0 3 0 3 3 0 3 0 3 0 3 3 0 3 0 3 0 3 3 0 3 0 3 0 3 3 0 3 0 3 0 3 3 0 3 0 3 3 3 0 3 0 3 0 3 3 0 3 0 3 0 3 0 3 3 0 3 0 3 0 3 3 0 3 0 3 0 3 3 3 0 3 0 3 3 0 3 0 3 0 3 3 3 0 3 0 3 3 0 3 0 3 0 3 0 3 3 0 3 0 3 0 3 3 0 3 0 3 0 3 3 0 3 3 0 3 0 3 0 3 3 0 3 0 3 0 3 3 0 3 0 3 0 3 3 0 3 0 3 0 3 3 0 3 0 3 0 3 0 3 3 0 3 0 3 3 0 3 0 3 0 3 0 3 3 0 3 0 3 0 3 3 0 3 0 3 3 0 3 0 3 0 3 3 0 3 0 3 0 3 3 0 3 3 0 3 0 3 0 3 3 0 3 0 3 0 3 3 0 3 0 3 0 3 3 0 3 0 3 0 3 0 3 0 3 0 3 3 0 3 0 3 0 3 0 3 0 3 0 3 0 3 0 3 0 3 0 3 3 0 3 0 3 0 3 3 0 3 0 3 3 0 3 0 3 0 3 0 3 0 3 3 0 3 0 3 3 0 3 0 3 0 3 0 3 0 3 0 3 0 3 0 3 0 3 0 3 0 3 0 3 0 3 0 3 0 3 3 0 3 0 3 3 0 3 0 3 0 3 3 0 3 0 3 0 3 3 0 3 0 3 0 3 0 3 3 0 3 0 3 0 3 3 0 3 0 3 0 3 0 3 3 0 3 0 3 0 3 0 3 3 0 3 0 3 0 3 3 0 3 0 3 0 3 0 3 3 0 3 0 3 0 3 3 0 3 0 3 0 3 0 3 0 3 3 0 3 0 3 0 3 0 3 3 0 3 0 3 0 3 0 3 0 3 3 0 3 0 3 0 3 0 3 0 3 3 0 3 0 3 0 3 0 3 0 3 3 0 3 0 3 0 3 0 3 0 3 3 3 0 3 3 0 3 0 3 0 3 0 3 0 3 3 0 3 0 3 0 3 0 3 3 0 3 0 3 3 0 3 0 3 0 3 3 0 3 0 3 0 3 3 0 3 0 3 0 3 0 3 3 0 3 0 3 0 3 3 0 3 0 3 0 3 0 3 3 0 3 0 3 0 3 0 3 3 0 3 0 3 0 3 3 0 3 0 3 0 3 3 0 3 0 3 0 3 0 3 3 0 3 0 3 0 3 3 0 3 0 3 0 3 3 0 3 0 3 0 3 0 3 3 0 3 0 3 0 3 0 3 3 0 3 0 3 0 3 0 3 3 0 3 0 3 0 3 0 3 0 3 0 3 3 0 3 0 3 0 3 0 3 3 0 3 0 3 0 3 3 0 3 0 3 0 3 3 0 3 0 3 0 3 3 0 3 0 3 0 3 3 0 3 0 3 0 3 3 0 3 0 3 0 3 3 0 3 0 3 0 3 3 0 3 0 3 0 3 3 0 3 0 3 0 3 3 0 3 0 3 0 3 3 0 3 0 3 0 3 3 0 3 0 3 0 3 3 0 3 0 3 0 3 3 0 3 0 3 0 3 3 0 3 0 3 0 3 3 0 3 0 3 0 3 3 0 3 0 3 0 3 3 0 3 0 3 0 3 3 0 3 0 3 0 3 3 0 3 0 3 0 3 3 0 3 0 3 0 3 3 0 3 0 3 0 3 3 0 3 0 3 0 3 3 0 3 0 3 3 0 3 0 3 0 3 3 0 3 0 3 3 3 3 3 3 3 3 3 3 3 3 3 3 3 3 3 3 3 3 3 3 3 3 3 3 3 3 3 3 3 3 3 3 3 3 3 3 3 3 3 3 3 3 3 3 3 3 3 3 3 3 3 3 3 3 3 3 3 3 3 3 3 3 3 3 3 3 3 3 3 3 3 3 3 3 3 3 3 3 3 3 3 3 3 3 3 3 3 3 3 3 3 3 3 3 3 3 3 3 3 3 3 3 3 3 3 3 3 3 3 3 3 3 3 3 3 3 3 3 3 3 3 3 3 3 3 3 3 3 3 3 3 3 3 3 3 3 3 3 3 3 3 3 3 3 3 3 3 3 3 3 3 3 3 3 3 3 3 3 3 3 3 3 3 3 3 3 3 3 3 3 3 3 3 3 3 3 3 3 3 3 3 3 3 3 3 3 3 3 3 3 3 3 3 3 3 3 3 3 3 3 3 3 3 3 3 3 3 3 3 3 3 3 3 3 3 3 3 3 3 3 3 3 3 3 3 3 3 3 3 3 3 3 3 3 3 3 3 3 3 3 3 3 3 3 3 3 3 3 3 3 3 3 3 3 3 3 3 3 3 3 3 3 3 3 3 3 3 3 3 3 3 3 3 3 3 3 3 3 3 3 3 3 3 3 3 3 3 3 3 3 3 3 3 3 3 3 3 3 3 3 3 3 3 3 3 3 3 3 3 3 3 3 3 3 3 3 3 3 3 3 3 3 3 3 3 3 3 3 3 3 3 3 3 3 3 3 3 3 3 3 3 3 3 3 3 3 3 3 3 3 3 3 3 3 3 3 3 3 3 3 3 3 3 3 3 3 3 3 3 3 3 3 3 3 3 3 3 3 3 3 3 3 3 3 3 3 3 3 3 3 3 3 3 3 3 3 3 3 3 3 3 3 3 3 3 3 3 3 3 3 3 3 3 3 3 3 3 3 3 3 3 3 3 3 3 3 3 3 3 3 3 3 3 3 3 3 3 3 3 3 3 3 3 3 3 3 3 3 3 3 3 3 3 3 3 3 3 3 3 3 3 3 3 3 3 3 3 3 3 3 3 3 3 3 3 3 3 3 3 3 3 3 3 3 3 3 3 3 3 3 3 3 3 3 3 3 3 3 3 3 3 3 3 3 3 3 3 3 3 3 3 3 3 3 3 3 3 3 3 3 3 3 3 3 3 3 3 3 3 3 3 3 3 3 3 3 3 3 3 3 3 3 3 3 3 3 3 3 3 3 3 3 3 3 3 3 3 3 3 3 3 3 3 3 3 3 3 3 3 3 3 3 3 3 3 3 3 3 3 3 3 3 3 3 3 3 3 3 3 3 3 3 3 3 3 3 3 3 3 3 3 3 3 3 3 3 3 3 3 3 3 3 3 3 3 3 3 3 3 3 3 3 3 3 3 3 3 3 3 3 3 3 3 3 3 3 3 3 3 3 3 3 3 3 3 3 3 3 3 3 3 3 3 3 3 3 3 3 3 3 3 3 3 3 3 3 3 3 3 3 3 3 3 3 3 3 3 3 3 3 3 3 3 3 3 3 3 3 3 3 3 3 3 3 3 3 3 3 3 3 3 3 3 3 3 3 3 3 3 3 3 3 3 3 3 3 3 3 3 3 3 3 3 3 3 3 3 3 3 3 3 3 3 3 3 3 3 3 3 3 3 3 3 3 3 3 3 3 3 3 3 3 3 3 3 3 3 3 3 3 3 3 3 3 3 3 3 3 3 3 3 3 3 3 3 3 3 3 3 3 3 3 3 3 3 3 3 3 3 3 3 3 3 3 3 3 3 3 3 3 3 3 3 3 3 3 3 3 3 3 3 3 3 3 3 3 3 3 3 3 3 3 3 3 3 3 3 3 3 3 3 3 3 3 3 3 3 3 3 3 3 3 3 3 3 3 3 3 3 3 3 3 3 3 3 3 3 3 3 3 3 3 3 3 3 3 3 3 3 3 3 3 3 3 3 3 3 3 3 3 3 3 3 3 3 3 3 3 3 3 3 3 3 3 3 3 3 3 3 3 3 3 3 3 3 3 3 3 3 3 3 3 3 3 3 3 3 3 3 3 3 3 3 3 3 3 3 3 3 3 3 3 3 3 3 3 3 3 3 3 3 3 3 3 3 3 3 3 3 3 3 3 3 3 3 3 3 3 3 3 3 3 3 3 3 3 3 3 3 3 3 3 3 3 3 3 3 3 3 3 3 3 3 3 3 3 3 3 3 3 3 3 3 3 3 3 3 3 3 3 3 3 3 3 3 3 3 3 3 3 3 3 3 3 3 3 3 3 3 3 3 3 3 3 3 3 3 3 3 3 3 3 3 3 3 3 3 3 3 3 3 3 3 3 3 3 3 3 3 3 3 3 3 3 3 3 3 3 3 3 3 3 3 3 3 3 3 3 3 3 3 3 3 3 3 3 3 3 3 3 3 3 3 3 3 3 3 3 3 3 3 3 3 3 3 3 3 3 3 3 3 3 3 3 3 3 3 3 3 3 3 3 3 3 3 3 3 3 3 3 3 3 3 3 3 3 3 3 3 3 3 3 3 3 3 3 3 3 3 3 3 3 3 3 3 3 3 3 3 3 3 3 3 3 3 3 3 3 3 3 3 3 3 3 3 3 3 3 3 3 3 3 3 3 3 3 3 3 3 3 3 3 3 3 3 3 3 3 3 3 3 3 3 3 3 3 3 </DataArray>
</CellData>
</Piece>
</UnstructuredGrid>
</VTKFile>