<?xml version="1.0"?>
<VTKFile type="UnstructuredGrid"  version="0.1"  >
<UnstructuredGrid>
<Piece  NumberOfPoints="2868" NumberOfCells="5400">
<Points>
<DataArray  type="Float64"  NumberOfComponents="3"  format="ascii">0.534923 0.326073 0  0.510642 0.314196 0  0.466125 0.293082 0  0.436448 0.281205 0  0.409468 0.275927 0  0.368998 0.270648 0  0.35281 0.275927 0  0.381139 0.302319 0  0.405421 0.326073 0  0.410817 0.33531 0  0.408119 0.349826 0  0.400025 0.357744 0  0.375743 0.368301 0  0.329878 0.392055 0  0.297502 0.432963 0  0.282663 0.476511 0  0.285361 0.524018 0  0.298851 0.572845 0  0.317737 0.6045160000000001 0  0.337972 0.6361869999999999 0  0.360904 0.674457 0  0.368998 0.69953 0  0.359555 0.7219640000000001 0  0.360904 0.757594 0  0.370347 0.766831 0  0.381139 0.762872 0  0.390582 0.741758 0  0.404072 0.720644 0  0.424307 0.707448 0  0.447239 0.702169 0  0.480964 0.704808 0  0.479615 0.6889729999999999 0  0.468823 0.675776 0  0.447239 0.6691780000000001 0  0.428354 0.6691780000000001 0  0.410817 0.6639 0  0.404072 0.653343 0  0.395978 0.628269 0  0.387884 0.59132 0  0.389233 0.576804 0  0.397327 0.557009 0  0.410817 0.547772 0  0.424307 0.546452 0  0.437797 0.55305 0  0.44589 0.5662469999999999 0  0.441843 0.582082 0  0.439145 0.5979179999999999 0  0.449937 0.609795 0  0.468823 0.603196 0  0.479615 0.59 0  0.489058 0.570205 0  0.494454 0.546452 0  0.505246 0.522699 0  0.522783 0.509502 0  0.55246 0.494986 0  0.586185 0.484429 0  0.615863 0.48047 0  0.64554 0.473872 0  0.6671240000000001 0.461995 0  0.683312 0.451438 0  0.696802 0.435603 0  0.703547 0.417128 0  0.7116400000000001 0.393374 0  0.7183850000000001 0.37226 0  0.7251300000000001 0.364342 0  0.739969 0.353785 0  0.7453650000000001 0.344548 0  0.7453650000000001 0.327393 0  0.737271 0.318155 0  0.7183850000000001 0.316835 0  0.7008490000000001 0.319475 0  0.677916 0.318155 0  0.650936 0.316835 0  0.610467 0.318155 0  0.57944 0.324753 0  0.559205 0.328712 0  0.5389699999999999 0.326073 0  1 1 0  1 0 0  0 0 0  0 1 0  0.532238 0.32476 0  0.528748 0.323052 0  0.52421 0.320833 0  0.518311 0.317947 0  0.503447 0.310783 0  0.494093 0.306347 0  0.481933 0.30058 0  0.452151 0.28749 0  0.392327 0.273691 0  0.379141 0.271971 0  0.360474 0.283066 0  0.369797 0.291752 0  0.391424 0.31238 0  0.399335 0.32012 0  0.40958 0.341964 0  0.393939 0.36039 0  0.386028 0.36383 0  0.364248 0.374254 0  0.349304 0.381994 0  0.315801 0.409841 0  0.292986 0.551616 0  0.350934 0.657818 0  0.360127 0.737055 0  0.360566 0.748664 0  0.385245 0.753692 0  0.396447 0.732578 0  0.466301 0.703661 0  0.459439 0.672908 0  0.418442 0.666195 0  0.400553 0.642441 0  0.39255 0.612619 0  0.389913 0.60058 0  0.392752 0.568197 0  0.444131 0.573132 0  0.458149 0.606926 0  0.5005540000000001 0.533026 0  0.571522 0.489019 0  0.632637 0.476741 0  0.689177 0.444553 0  0.708121 0.403702 0  0.715453 0.38144 0  0.732406 0.359166 0  0.7453650000000001 0.337089 0  0.72906 0.317581 0  0.629879 0.317522 0  0.59293 0.321884 0  0.568003 0.326991 0  0.55202 0.327775 0  0.546493 0.327054 0  0.542241 0.326499 0  1 0.9 0  1 0.8 0  1 0.7 0  1 0.6 0  1 0.5 0  1 0.4 0  1 0.3 0  1 0.2 0  1 0.1 0  0.9 0 0  0.8 0 0  0.7 0 0  0.6 0 0  0.5 0 0  0.4 0 0  0.3 0 0  0.2 0 0  0.1 0 0  0.1 1 0  0.2 1 0  0.3 1 0  0.4 1 0  0.5 1 0  0.6 1 0  0.7 1 0  0.8 1 0  0.9 1 0  0 0.1 0  0 0.2 0  0 0.3 0  0 0.4 0  0 0.5 0  0 0.6 0  0 0.7 0  0 0.8 0  0 0.9 0  0.535686 0.5031910000000001 0  0.753987 0.733359 0  0.167145 0.741436 0  0.173378 0.257204 0  0.733497 0.159862 0  0.554096 0.15788 0  0.849187 0.479053 0  0.488793 0.838452 0  0.138507 0.5592 0  0.30686 0.154944 0  0.348904 0.890523 0  0.058006 0.065099 0  0.06984899999999999 0.937917 0  0.93633 0.939704 0  0.934625 0.053613 0  0.343397 0.333452 0  0.473272 0.639943 0  0.433266 0.638072 0  0.415174 0.58269 0  0.533435 0.545042 0  0.390848 0.340652 0  0.53655 0.320242 0  0.127966 0.393775 0  0.83861 0.850455 0  0.635242 0.8551299999999999 0  0.852158 0.633441 0  0.653427 0.626848 0  0.861226 0.24292 0  0.166128 0.12976 0  0.216875 0.8698709999999999 0  0.458305 0.11179 0  0.84446 0.101633 0  0.202024 0.642528 0  0.644825 0.115855 0  0.671342 0.218358 0  0.251354 0.286186 0  0.262388 0.75153 0  0.063044 0.751571 0  0.068189 0.242962 0  0.435781 0.9053949999999999 0  0.934144 0.451133 0  0.568393 0.237622 0  0.814984 0.395506 0  0.752951 0.517227 0  0.456254 0.780699 0  0.073352 0.531116 0  0.337731 0.206071 0  0.363213 0.960371 0  0.330742 0.363592 0  0.516613 0.55705 0  0.369057 0.332992 0  0.500926 0.617309 0  0.498004 0.665534 0  0.412142 0.61178 0  0.454233 0.6366039999999999 0  0.422782 0.567496 0  0.541193 0.5214800000000001 0  0.439761 0.65557 0  0.5163 0.533672 0  0.414775 0.64562 0  0.40073 0.576135 0  0.430362 0.5880339999999999 0  0.385432 0.351492 0  0.400298 0.335397 0  0.398325 0.348194 0  0.528702 0.314885 0  0.540814 0.322334 0  0.534477 0.322953 0  0.619095 0.743583 0  0.885162 0.737972 0  0.08076 0.668849 0  0.90734 0.36634 0  0.09468699999999999 0.868937 0  0.759838 0.912152 0  0.901518 0.540898 0  0.747285 0.607479 0  0.229182 0.071641 0  0.06915399999999999 0.450091 0  0.244775 0.203309 0  0.076534 0.331755 0  0.897847 0.167826 0  0.578909 0.911415 0  0.07713299999999999 0.146341 0  0.477215 0.203448 0  0.922631 0.869341 0  0.517415 0.074785 0  0.297026 0.827793 0  0.7832710000000001 0.246505 0  0.74519 0.061079 0  0.36033 0.069068 0  0.210313 0.475228 0  0.859426 0.928758 0  0.5745479999999999 0.609182 0  0.243069 0.383398 0  0.283099 0.934598 0  0.417416 0.843141 0  0.643942 0.553164 0  0.112687 0.079336 0  0.281357 0.658386 0  0.765043 0.436177 0  0.611361 0.198486 0  0.234496 0.58911 0  0.206479 0.702638 0  0.679608 0.155818 0  0.62682 0.259978 0  0.690538 0.264164 0  0.448938 0.956308 0  0.808154 0.328403 0  0.379583 0.91913 0  0.308083 0.297769 0  0.312358 0.730249 0  0.563101 0.278576 0  0.435597 0.746198 0  0.385475 0.225229 0  0.572248 0.518034 0  0.357864 0.35422 0  0.497647 0.641694 0  0.458101 0.655768 0  0.360474 0.310727 0  0.467038 0.620139 0  0.47798 0.659909 0  0.41102 0.628072 0  0.48324 0.609015 0  0.427544 0.617941 0  0.388633 0.328253 0  0.405336 0.599404 0  0.408351 0.565178 0  0.42395 0.600985 0  0.431562 0.576523 0  0.424905 0.6551979999999999 0  0.398064 0.58782 0  0.427739 0.557934 0  0.5192909999999999 0.303443 0  0.53142 0.320293 0  0.5449000000000001 0.323642 0  0.537166 0.323513 0  0.153974 0.920841 0  0.9181859999999999 0.67343 0  0.759946 0.820588 0  0.5375259999999999 0.783091 0  0.816532 0.545843 0  0.813991 0.178083 0  0.836774 0.702023 0  0.149815 0.318856 0  0.662287 0.923338 0  0.680146 0.791192 0  0.708961 0.663172 0  0.9372779999999999 0.287318 0  0.574622 0.6881660000000001 0  0.5894740000000001 0.076262 0  0.502822 0.926683 0  0.222269 0.811068 0  0.380457 0.164786 0  0.15321 0.684154 0  0.458063 0.051413 0  0.161702 0.056026 0  0.199351 0.198818 0  0.298946 0.09553200000000001 0  0.902465 0.795949 0  0.121139 0.791477 0  0.906269 0.112287 0  0.056109 0.822332 0  0.512172 0.13237 0  0.940964 0.741805 0  0.888887 0.408777 0  0.354543 0.825964 0  0.808736 0.068638 0  0.068507 0.394071 0  0.719105 0.563843 0  0.247287 0.149664 0  0.293062 0.237128 0  0.240524 0.434997 0  0.141255 0.623289 0  0.945202 0.160621 0  0.502914 0.247629 0  0.144669 0.480811 0  0.665025 0.060817 0  0.728047 0.224344 0  0.861995 0.313312 0  0.200068 0.534235 0  0.253262 0.965623 0  0.893804 0.49307 0  0.604391 0.572456 0  0.947088 0.345347 0  0.439372 0.227307 0  0.629847 0.159823 0  0.273405 0.880181 0  0.302744 0.776823 0  0.781502 0.295365 0  0.275342 0.349602 0  0.7283849999999999 0.472798 0  0.229136 0.246478 0  0.807794 0.480346 0  0.709476 0.112786 0  0.275506 0.694991 0  0.771674 0.394419 0  0.449715 0.861802 0  0.419159 0.799696 0  0.674851 0.503139 0  0.280443 0.61016 0  0.572443 0.192538 0  0.393113 0.87525 0  0.405555 0.948428 0  0.330942 0.934103 0  0.540509 0.597101 0  0.312763 0.6689310000000001 0  0.254368 0.540179 0  0.595265 0.25915 0  0.606679 0.234099 0  0.657131 0.279138 0  0.722458 0.279478 0  0.333 0.308056 0  0.351529 0.246142 0  0.455714 0.7257940000000001 0  0.585239 0.295143 0  0.340062 0.72492 0  0.545593 0.293773 0  0.555449 0.545426 0  0.414311 0.737314 0  0.590854 0.502323 0  0.350507 0.368444 0  0.484423 0.625665 0  0.483899 0.674542 0  0.378137 0.317274 0  0.446416 0.646404 0  0.373532 0.347654 0  0.446876 0.619769 0  0.466106 0.666068 0  0.437545 0.609254 0  0.434988 0.565726 0  0.41462 0.656829 0  0.418803 0.556961 0  0.398425 0.327446 0  0.517803 0.310421 0  0.549516 0.322918 0  0.57701 0.842889 0  0.8291269999999999 0.773906 0  0.643235 0.684732 0  0.134281 0.207734 0  0.865997 0.055966 0  0.680959 0.723345 0  0.165229 0.8415550000000001 0  0.54558 0.959672 0  0.783726 0.656439 0  0.913315 0.595533 0  0.699439 0.860667 0  0.785839 0.125076 0  0.551673 0.037713 0  0.9200970000000001 0.223214 0  0.206406 0.299726 0  0.087064 0.596401 0  0.935644 0.394252 0  0.964557 0.252582 0  0.230124 0.928346 0  0.120579 0.271764 0  0.8572149999999999 0.524082 0  0.7670979999999999 0.5551469999999999 0  0.936094 0.507131 0  0.804064 0.59585 0  0.700565 0.608273 0  0.429773 0.174231 0  0.117746 0.727333 0  0.5389620000000001 0.730231 0  0.862761 0.359173 0  0.821444 0.284046 0  0.193552 0.35818 0  0.234923 0.505555 0  0.193209 0.421217 0  0.220144 0.755896 0  0.594015 0.131642 0  0.283813 0.195855 0  0.517519 0.213961 0  0.553509 0.639116 0  0.280391 0.378018 0  0.852183 0.436817 0  0.746983 0.197173 0  0.821806 0.221318 0  0.449853 0.828453 0  0.883758 0.453926 0  0.183484 0.589542 0  0.348384 0.129314 0  0.255254 0.838525 0  0.504849 0.798516 0  0.320344 0.863432 0  0.611669 0.525425 0  0.265864 0.804962 0  0.72056 0.521442 0  0.613372 0.6101220000000001 0  0.481262 0.881068 0  0.655778 0.191988 0  0.701921 0.196918 0  0.5658260000000001 0.5731810000000001 0  0.46914 0.240927 0  0.343219 0.173284 0  0.888786 0.278502 0  0.244113 0.6750930000000001 0  0.739546 0.417914 0  0.784023 0.355942 0  0.326805 0.265549 0  0.248616 0.6
[...]
<PointData  Vectors="f_14-0"> 
<DataArray  type="Float64"  Name="f_14-0"  NumberOfComponents="3" format="ascii">0.0000000000000000e+00 -4.8548846581892197e-18 0.0000000000000000e+00  0.0000000000000000e+00 0.0000000000000000e+00 0.0000000000000000e+00  0.0000000000000000e+00 1.6181561837901487e-16 0.0000000000000000e+00  0.0000000000000000e+00 1.0899038180277743e-16 0.0000000000000000e+00  0.0000000000000000e+00 -9.1378688388992642e-17 0.0000000000000000e+00  0.0000000000000000e+00 8.8972470253601009e-18 0.0000000000000000e+00  0.0000000000000000e+00 0.0000000000000000e+00 0.0000000000000000e+00  -4.3510422869470408e-17 0.0000000000000000e+00 0.0000000000000000e+00  0.0000000000000000e+00 0.0000000000000000e+00 0.0000000000000000e+00  -3.4753338814271833e-17 0.0000000000000000e+00 0.0000000000000000e+00  -2.4447454982803341e-17 0.0000000000000000e+00 0.0000000000000000e+00  0.0000000000000000e+00 0.0000000000000000e+00 0.0000000000000000e+00  1.9069497293535539e-17 -1.2542288934994212e-17 0.0000000000000000e+00  0.0000000000000000e+00 0.0000000000000000e+00 0.0000000000000000e+00  7.1254894506089546e-17 0.0000000000000000e+00 0.0000000000000000e+00  -2.2906886332289922e-16 0.0000000000000000e+00 0.0000000000000000e+00  6.1722320602735618e-17 0.0000000000000000e+00 0.0000000000000000e+00  5.4549303881859711e-17 0.0000000000000000e+00 0.0000000000000000e+00  1.1263381412096736e-16 0.0000000000000000e+00 0.0000000000000000e+00  8.6617086573147142e-17 0.0000000000000000e+00 0.0000000000000000e+00  3.3569310385992878e-18 0.0000000000000000e+00 0.0000000000000000e+00  -5.1571597264596641e-19 0.0000000000000000e+00 0.0000000000000000e+00  0.0000000000000000e+00 0.0000000000000000e+00 0.0000000000000000e+00  0.0000000000000000e+00 0.0000000000000000e+00 0.0000000000000000e+00  0.0000000000000000e+00 0.0000000000000000e+00 0.0000000000000000e+00  0.0000000000000000e+00 0.0000000000000000e+00 0.0000000000000000e+00  3.5788074283691680e-18 0.0000000000000000e+00 0.0000000000000000e+00  0.0000000000000000e+00 0.0000000000000000e+00 0.0000000000000000e+00  -1.7952802608523378e-17 -1.1213039713494932e-18 0.0000000000000000e+00  0.0000000000000000e+00 -5.8420898514706373e-18 0.0000000000000000e+00  0.0000000000000000e+00 0.0000000000000000e+00 0.0000000000000000e+00  -2.8782326246401891e-17 0.0000000000000000e+00 0.0000000000000000e+00  -1.0740851490113800e-17 0.0000000000000000e+00 0.0000000000000000e+00  0.0000000000000000e+00 3.5525903597225589e-18 0.0000000000000000e+00  0.0000000000000000e+00 1.0608531026500431e-19 0.0000000000000000e+00  -2.9532750122537653e-18 -3.2645217144234179e-19 0.0000000000000000e+00  -7.1607203446281784e-20 0.0000000000000000e+00 0.0000000000000000e+00  2.3620026058475374e-19 0.0000000000000000e+00 0.0000000000000000e+00  -3.6145862619496730e-19 0.0000000000000000e+00 0.0000000000000000e+00  9.8224145672968669e-19 0.0000000000000000e+00 0.0000000000000000e+00  -2.0165717464119606e-18 0.0000000000000000e+00 0.0000000000000000e+00  -2.4996526464717247e-18 -1.3813235405834172e-19 0.0000000000000000e+00  0.0000000000000000e+00 -1.9971760076945476e-18 0.0000000000000000e+00  -1.3349375654969852e-18 -2.1342124255767963e-18 0.0000000000000000e+00  -6.2416031091132508e-19 0.0000000000000000e+00 0.0000000000000000e+00  -3.1455310520957585e-18 0.0000000000000000e+00 0.0000000000000000e+00  0.0000000000000000e+00 0.0000000000000000e+00 0.0000000000000000e+00  0.0000000000000000e+00 0.0000000000000000e+00 0.0000000000000000e+00  0.0000000000000000e+00 0.0000000000000000e+00 0.0000000000000000e+00  0.0000000000000000e+00 0.0000000000000000e+00 0.0000000000000000e+00  0.0000000000000000e+00 0.0000000000000000e+00 0.0000000000000000e+00  2.0038413757260976e-18 0.0000000000000000e+00 0.0000000000000000e+00  0.0000000000000000e+00 0.0000000000000000e+00 0.0000000000000000e+00  0.0000000000000000e+00 1.5707002329088346e-18 0.0000000000000000e+00  0.0000000000000000e+00 9.7170904399885712e-18 0.0000000000000000e+00  0.0000000000000000e+00 0.0000000000000000e+00 0.0000000000000000e+00  -3.4136717497567771e-18 -8.5274034949969311e-19 0.0000000000000000e+00  -1.8185566573636999e-17 -4.9708991756908491e-18 0.0000000000000000e+00  -1.6414098702820898e-18 3.5779032903542016e-18 0.0000000000000000e+00  -2.4507454930697930e-17 8.1680961412594989e-18 0.0000000000000000e+00  0.0000000000000000e+00 0.0000000000000000e+00 0.0000000000000000e+00  -2.0346441174996578e-17 0.0000000000000000e+00 0.0000000000000000e+00  -2.8305709399058732e-18 0.0000000000000000e+00 0.0000000000000000e+00  0.0000000000000000e+00 0.0000000000000000e+00 0.0000000000000000e+00  0.0000000000000000e+00 0.0000000000000000e+00 0.0000000000000000e+00  -2.0663922330426804e-17 9.0409321371700577e-18 0.0000000000000000e+00  5.1855625395505243e-19 0.0000000000000000e+00 0.0000000000000000e+00  0.0000000000000000e+00 0.0000000000000000e+00 0.0000000000000000e+00  -1.2394026847881586e-17 0.0000000000000000e+00 0.0000000000000000e+00  0.0000000000000000e+00 1.5433374939830440e-17 0.0000000000000000e+00  0.0000000000000000e+00 -2.0397252009572362e-17 0.0000000000000000e+00  0.0000000000000000e+00 0.0000000000000000e+00 0.0000000000000000e+00  0.0000000000000000e+00 1.0941514066455582e-17 0.0000000000000000e+00  0.0000000000000000e+00 -2.2091490469280381e-16 0.0000000000000000e+00  0.0000000000000000e+00 2.8526958159581842e-17 0.0000000000000000e+00  0.0000000000000000e+00 -4.7207269933691894e-18 0.0000000000000000e+00  0.0000000000000000e+00 -1.2154619273348493e-18 0.0000000000000000e+00  6.1751835842546230e-18 0.0000000000000000e+00 0.0000000000000000e+00  -3.8499032211228562e-18 0.0000000000000000e+00 0.0000000000000000e+00  -1.6268425481218645e-16 1.3557021234348872e-17 0.0000000000000000e+00  -1.8598773709611431e-16 0.0000000000000000e+00 0.0000000000000000e+00  0.0000000000000000e+00 2.5775572909054464e-18 0.0000000000000000e+00  1.1416275897514104e-18 4.9940592429857887e-19 0.0000000000000000e+00  0.0000000000000000e+00 -2.2203914712421869e-17 0.0000000000000000e+00  0.0000000000000000e+00 0.0000000000000000e+00 0.0000000000000000e+00  -1.2830090041125349e-17 -2.2169052912776291e-17 0.0000000000000000e+00  0.0000000000000000e+00 5.4235474522762703e-17 0.0000000000000000e+00  6.0316597197288318e-17 -5.3239659538208218e-19 0.0000000000000000e+00  0.0000000000000000e+00 -6.2120855014220308e-17 0.0000000000000000e+00  0.0000000000000000e+00 2.1795356790295138e-17 0.0000000000000000e+00  0.0000000000000000e+00 0.0000000000000000e+00 0.0000000000000000e+00  0.0000000000000000e+00 -3.4121207519662905e-17 0.0000000000000000e+00  9.6774857949026252e-17 4.2714836584771306e-17 0.0000000000000000e+00  -8.9345176927982357e-17 1.4185833114693912e-17 0.0000000000000000e+00  1.4088842277216710e-17 -4.5171594479783444e-17 0.0000000000000000e+00  0.0000000000000000e+00 0.0000000000000000e+00 0.0000000000000000e+00  0.0000000000000000e+00 -1.4511799803999355e-17 0.0000000000000000e+00  0.0000000000000000e+00 0.0000000000000000e+00 0.0000000000000000e+00  0.0000000000000000e+00 1.0971295147184102e-16 0.0000000000000000e+00  -6.2665234178297914e-17 3.7533239860603063e-17 0.0000000000000000e+00  -2.9384351327270604e-16 0.0000000000000000e+00 0.0000000000000000e+00  0.0000000000000000e+00 0.0000000000000000e+00 0.0000000000000000e+00  1.1628130685724347e-17 0.0000000000000000e+00 0.0000000000000000e+00  7.5418659815228976e-17 0.0000000000000000e+00 0.0000000000000000e+00  -4.9715850453651984e-17 0.0000000000000000e+00 0.0000000000000000e+00  0.0000000000000000e+00 0.0000000000000000e+00 0.0000000000000000e+00  0.0000000000000000e+00 0.0000000000000000e+00 0.0000000000000000e+00  0.0000000000000000e+00 -1.9996785644597882e-17 0.0000000000000000e+00  0.0000000000000000e+00 3.7325103715311468e-18 0.0000000000000000e+00  0.0000000000000000e+00 3.3596897967613159e-18 0.0000000000000000e+00  1.1624651255070165e-18 0.0000000000000000e+00 0.0000000000000000e+00  6.0632728340497319e-18 0.0000000000000000e+00 0.0000000000000000e+00  0.0000000000000000e+00 0.0000000000000000e+00 0.0000000000000000e+00  -2.1558777068363537e-19 0.0000000000000000e+00 0.0000000000000000e+00  0.0000000000000000e+00 0.0000000000000000e+00 0.0000000000000000e+00  0.0000000000000000e+00 2.1763239220371593e-17 0.0000000000000000e+00  -3.5385781558993010e-18 0.0000000000000000e+00 0.0000000000000000e+00  0.0000000000000000e+00 8.3993139473310874e-18 0.0000000000000000e+00  0.0000000000000000e+00 1.4550051385483166e-17 0.0000000000000000e+00  -5.7505022830308084e-17 0.0000000000000000e+00 0.0000000000000000e+00  -2.4190010556797104e-18 0.0000000000000000e+00 0.0000000000000000e+00  1.9826864192484070e-18 0.0000000000000000e+00 0.0000000000000000e+00  0.0000000000000000e+00 0.0000000000000000e+00 0.0000000000000000e+00  2.7811754042619207e-18 0.0000000000000000e+00 0.0000000000000000e+00  0.0000000000000000e+00 1.5219086561907262e-17 0.0000000000000000e+00  0.0000000000000000e+00 -8.3943530387960075e-17 0.0000000000000000e+00  0.0000000000000000e+00 -2.8125178570025267e-17 0.0000000000000000e+00  0.0000000000000000e+00 -4.4931379534862276e-17 0.0000000000000000e+00  0.0000000000000000e+00 3.7649860150539747e-18 0.0000000000000000e+00  0.0000000000000000e+00 9.5289177947932189e-18 0.0000000000000000e+00  0.0000000000000000e+00 -1.2268706951456909e-18 0.0000000000000000e+00  -3.4825612575928394e-01 5.8938840103395666e-02 0.0000000000000000e+00  -5.9828953083161807e-01 1.3476677663844500e-01 0.0000000000000000e+00  -6.8557643525264877e-01 1.8056475864712954e-01 0.0000000000000000e+00  -6.5983123755635498e-01 1.6742885199446661e-01 0.0000000000000000e+00  -6.1901111597694936e-01 8.2139340435919125e-02 0.0000000000000000e+00  -6.8479549358004144e-01 -6.3628478269243047e-02 0.0000000000000000e+00  -8.9654185699224875e-01 -1.8994945918605000e-01 0.0000000000000000e+00  -1.0294602800551600e+00 -1.9394883445069944e-01 0.0000000000000000e+00  -7.4886948542633525e-01 -9.4626873631441052e-02 0.0000000000000000e+00  0.0000000000000000e+00 1.3671603679275241e-17 0.0000000000000000e+00  0.0000000000000000e+00 5.6185496550818182e-17 0.0000000000000000e+00  0.0000000000000000e+00 -8.8774921526814632e-17 0.0000000000000000e+00  0.0000000000000000e+00 -2.5560251418996853e-17 0.0000000000000000e+00  0.0000000000000000e+00 -1.4709412490209976e-16 0.0000000000000000e+00  0.0000000000000000e+00 1.0317491864648213e-16 0.0000000000000000e+00  0.0000000000000000e+00 -2.8194877071538399e-16 0.0000000000000000e+00  0.0000000000000000e+00 -9.0723721591827167e-17 0.0000000000000000e+00  0.0000000000000000e+00 2.3419271245321961e-17 0.0000000000000000e+00  0.0000000000000000e+00 -3.4012672373273086e-16 0.0000000000000000e+00  0.0000000000000000e+00 6.6826574198251171e-18 0.0000000000000000e+00  0.0000000000000000e+00 6.3553610598697771e-17 0.0000000000000000e+00  0.0000000000000000e+00 -7.8737658969552761e-17 0.0000000000000000e+00  0.0000000000000000e+00 4.4840872648078871e-18 0.0000000000000000e+00  0.0000000000000000e+00 9.2954802469922728e-17 0.0000000000000000e+00  0.0000000000000000e+00 -6.3964398438231304e-17 0.0000000000000000e+00  0.0000000000000000e+00 -4.5738799090325915e-17 0.0000000000000000e+00  0.0000000000000000e+00 4.1067146210396485e-18 0.0000000000000000e+00  -3.0901699437494740e-01 0.0000000000000000e+00 0.0000000000000000e+00  -5.8778525229247303e-01 0.0000000000000000e+00 0.0000000000000000e+00  -8.0901699437494723e-01 0.0000000000000000e+00 0.0000000000000000e+00  -9.5105651629515398e-01 0.0000000000000000e+00 0.0000000000000000e+00  -9.9999999999999878e-01 0.0000000000000000e+00 0.0000000000000000e+00  -9.5105651629515264e-01 0.0000000000000000e+00 0.0000000000000000e+00  -8.0901699437494634e-01 0.0000000000000000e+00 0.0000000000000000e+00  -5.8778525229247325e-01 0.0000000000000000e+00 0.0000000000000000e+00  -3.0901699437494734e-01 0.0000000000000000e+00 0.0000000000000000e+00  3.5232967757892910e-19 -2.3770053389984252e-18 0.0000000000000000e+00  -8.0888087011627696e-01 3.8024610127522362e-01 0.0000000000000000e+00  -7.6329601150772175e-01 -8.1626851881175000e-01 0.0000000000000000e+00  -8.0545362674224230e-01 7.3415961042734335e-01 0.0000000000000000e+00  -1.4159415291496653e+00 -1.7350413327288869e-01 0.0000000000000000e+00  -1.5116336483735002e+00 -1.3013607351585799e-01 0.0000000000000000e+00  -3.8820626738852260e-01 1.5412524747858819e-01 0.0000000000000000e+00  -1.5607439358289463e+00 4.9303222753233966e-01 0.0000000000000000e+00  -6.1056119122047969e-01 -2.9001974779302059e-01 0.0000000000000000e+00  -1.4846751282948016e+00 4.2961033351088806e-01 0.0000000000000000e+00  -1.8117439094807573e+00 -1.8155719813945981e-01 0.0000000000000000e+00  -2.4870182007682695e-01 5.1208971999633292e-02 0.0000000000000000e+00  -2.6937597947105352e-01 -6.9599286173756117e-02 0.0000000000000000e+00  -2.5425642587529712e-01 2.5681090018602561e-02 0.0000000000000000e+00  -5.1375721669892016e-01 -3.6324916193283867e-02 0.0000000000000000e+00  -1.0872018943925378e-02 7.5615824976075399e-02 0.0000000000000000e+00  9.1328913214337216e-04 6.8066779373859342e-03 0.0000000000000000e+00  9.8857709028207788e-05 -2.3649837317928500e-03 0.0000000000000000e+00  -2.7421846799508383e-05 5.6033510652744262e-06 0.0000000000000000e+00  -2.1667936444238766e-02 2.5242474831924752e-02 0.0000000000000000e+00  1.6942787498223648e-03 -6.7539470837593776e-03 0.0000000000000000e+00  -3.5223722031379620e-02 -8.7054342764773373e-03 0.0000000000000000e+00  -6.8597231639476364e-01 4.1486358392680250e-01 0.0000000000000000e+00  -6.5656919671532976e-01 1.4453070757647229e-01 0.0000000000000000e+00  -1.0933521439469891e+00 3.5068695882578621e-01 0.0000000000000000e+00  -6.4530156962941343e-01 2.8052642107519460e-01 0.0000000000000000e+00  -4.4905521501007295e-01 3.6571566044678111e-01 0.0000000000000000e+00  -1.0442779744986237e+00 -3.5270237250974723e-01 0.0000000000000000e+00  -8.1589873697705295e-01 3.7074221001547375e-01 0.0000000000000000e+00  -1.1563817791099114e+00 -5.4591308653721504e-01 0.0000000000000000e+00  -1.5437317677200348e+00 -6.6910826287625055e-02 0.0000000000000000e+00  -9.9628411840939357e-01 -1.1720770294813776e-01 0.0000000000000000e+00  -4.6233088073822243e-01 -6.1542373715987886e-01 0.0000000000000000e+00  -1.3709905521821910e+00 -7.2517737238729008e-02 0.0000000000000000e+00  -1.2945864372832425e+00 -1.0286169606337819e-01 0.0000000000000000e+00  -6.0265345241492196e-01 7.4876649369420034e-01 0.0000000000000000e+00  -6.9580492595586885e-01 -8.8248665016930883e-01 0.0000000000000000e+00  -7.2760484249407331e-01 -4.4556240397398200e-01 0.0000000000000000e+00  -7.2704687195074857e-01 4.1098797465150050e-01 0.0000000000000000e+00  -1.6620522069847175e+00 1.7126807975427297e-01 0.0000000000000000e+00  -5.2689389159200906e-01 3.1192538509427596e-02 0.0000000000000000e+00  -1.0265407839846898e+00 -1.0159131556930025e-01 0.0000000000000000e+00  -2.4139899807067569e-01 -9.1203610717845406e-03 0.0000000000000000e+00  -3.4471981961127596e-01 2.6191718560750293e-01 0.0000000000000000e+00  -1.0334546646728193e+00 4.7073188742957939e-01 0.0000000000000000e+00  -8.6114205250970033e-01 -1.1805855209244724e-01 0.0000000000000000e+00  -1.3995529618739673e+00 4.5325632204529687e-01 0.0000000000000000e+00  -9.7371469476670647e-01 -1.8066313908083265e-02 0.0000000000000000e+00  -3.4016054691244899e-02 7.0953728972919364e-02 0.0000000000000000e+00  -1.2312326051024966e-02 2.0330541312874761e-02 0.0000000000000000e+00  2.1095712300320305e-03 -6.1067833059468817e-03 0.0000000000000000e+00  -1.3701698981251842e-02 5.1350770412833723e-02 0.0000000000000000e+00  -2.2441106431242707e-02 1.1667306863506850e-01 0.0000000000000000e+00  1.4272781925483058e-04 -9.6466477154367702e-05 0.0000000000000000e+00  1.6624586396788590e-03 -4.3683342234643154e-03 0.0000000000000000e+00  -1.4720400525506602e-05 -5.6459239693038269e-06 0.0000000000000000e+00  -1.3238442710264682e-02 1.0211039194969868e-02 0.0000000000000000e+00  -2.6133094348898714e-03 -1.9813740913128719e-03 0.0000000000000000e+00  -4.3921068109317903e-03 5.5233839731232224e-03 0.0000000000000000e+00  -2.3080813833811442e-04 -6.0629586138077473e-04 0.0000000000000000e+00  -1.1929911682426333e-05 1.8777104266802928e-05 0.0000000000000000e+00  -1.4734245042333944e-05 -4.3981706023051652e-05 0.0000000000000000e+00  5.6321029530882107e-03 -5.3826596091290264e-03 0.0000000000000000e+00  -4.2201819398936745e-04 -3.0066542499461520e-03 0.0000000000000000e+00  1.4596455557897396e-03 -2.3632289484291661e-03 0.0000000000000000e+00  -6.0162991914986391e-02 -2.1680564632011956e-02 0.0000000000000000e+00  -2.7779826797664380e-02 -4.5311666998617793e-03 0.0000000000000000e+00  -1.3116653643070251e-02 -4.0256186334649011e-03 0.0000000000000000e+00  -8.7449000056523885e-01 5.7886625118535517e-01 0.0000000000000000e+00  -7.2592977065695974e-01 2.2438565256212237e-01 0.0000000000000000e+00  -7.9572931146786396e-01 -4.9514344530496829e-01 0.0000000000000000e+00  -5.8212806914056314e-01 -1.4372811307430325e-01 0.0000000000000000e+00  -5.8965615513526248e-01 -3.1780952027075782e-01 0.0000000000000000e+00  -5.7292500945124514e-01 9.0731026547905866e-02 0.0000000000000000e+00  -5.3724657218494665e-01 1.8029992400387404e-01 0.0000000000000000e+00  -5.4644781824865940e-01 3.4848955351961075e-01 0.0000000000000000e+00  -7.8963797952306747e-01 1.5731832770738380e-01 0.0000000000000000e+00  -8.7287409154816076e-01 1.4044176628093705e-01 0.0000000000000000e+00  -1.1133383235999768e+00 7.2198272797851359e-01 0.0000000000000000e+00  -8.1022409193779599e-01 4.3052445591701605e-01 0.0000000000000000e+00  -1.1160582558907299e+00 -2.2056959208263882e-01 0.0000000000000000e+00  -1.0713031674344158e+00 2.0405764952301919e-01 0.0000000000000000e+00  -5.5707322446599850e-01 2.6364271720341648e-01 0.0000000000000000e+00  -1.3476064262867062e+00 -1.9714115557088907e-01 0.0000000000000000e+00  -5.0857445955053915e-01 8.8170530665302518e-02 0.0000000000000000e+00  -1.1895092955621582e+00 -5.0133304494324758e-02 0.0000000000000000e+00  -1.4968981171177984e+00 -7.4410920953612170e-01 0.0000000000000000e+00  -1.1048951237235012e+00 -3.7365307704797524e-01 0.0000000000000000e+00  -8.2935522652923943e-01 -4.0130827410543947e-02 0.0000000000000000e+00  -1.1585173858843751e+00 6.0526519431698983e-02 0.0000000000000000e+00  -2.5856852759959509e-01 1.0023525916845547e-01 0.0000000000000000e+00  -3.6330372946521783e-01 3.8490663610462848e-02 0.0000000000000000e+00  -1.7793671398117880e-01 2.2127639973754812e-01 0.0000000000000000e+00  -2.9227126956527250e-01 4.1661699214865666e-01 0.0000000000000000e+00  -1.1529901378489471e+00 -1.7396609511469260e-01 0.0000000000000000e+00  -1.8095523507355238e+00 2.9610756123606063e-01 0.0000000000000000e+00  -2.5266508860945897e-01 1.7857346891905268e-01 0.0000000000000000e+00  -4.2809045992179917e-01 1.3276876232523163e-01 0.0000000000000000e+00  -2.1157453325115322e-01 -4.1223450802606515e-01 0.0000000000000000e+00  -1.5699753261746416e-01 1.5319607747524913e-01 0.0000000000000000e+00  -1.3688317811224495e+00 -9.3098431766827777e-02 0.0000000000000000e+00  -2.4977079516175307e-01 -3.6995703321794393e-01 0.0000000000000000e+00  -5.9183547588974250e-01 -7.9686267389054233e-01 0.0000000000000000e+00  -1.4610729635550235e+00 -1.1362103953246547e-01 0.0000000000000000e+00  -8.6768662137921748e-01 -2.6583312778714004e-02 0.0000000000000000e+00  -9.0092096577257275e-01 -7.8052583701487668e-02 0.0000000000000000e+00  -9.8262093405596707e-01 5.2909276009357117e-02 0.0000000000000000e+00  -4.1792264882345909e-01 -2.9051476533786935e-01 0.0000000000000000e+00  -1.6160120177121025e+00 -1.2772146326466361e-02 0.0000000000000000e+00  -2.5625194522814132e-01 5.0356311679584320e-01 0.0000000000000000e+00  -2.6082362846702056e-01 -5.6437400212213995e-01 0.0000000000000000e+00  -5.4201249252002837e-01 -4.7262195521475446e-02 0.0000000000000000e+00  -3.8430304629471862e-01 2.1775380691688509e-01 0.0000000000000000e+00  -1.1844165966293514e+00 6.575449